# vtk DataFile Version 3.0
 Rectilinear Grid
 ASCII
 DATASET RECTILINEAR_GRID
DIMENSIONS          65          65          37
X_COORDINATES          65  double
  -801000.00000  -417000.00000  -225000.00000  -129000.00000   -81000.00000   -57000.00000   -45000.00000   -39000.00000   -36000.00000   -34500.00000   -33000.00000   -31500.00000   -30000.00000   -28500.00000   -27000.00000   -25500.00000   -24000.00000   -22500.00000   -21000.00000   -19500.00000   -18000.00000   -16500.00000   -15000.00000   -13500.00000   -12000.00000   -10500.00000    -9000.00000    -7500.00000    -6000.00000    -4500.00000    -3000.00000    -1500.00000        0.00000     1500.00000     3000.00000     4500.00000     6000.00000     7500.00000     9000.00000    10500.00000    12000.00000    13500.00000    15000.00000    16500.00000    18000.00000    19500.00000    21000.00000    22500.00000    24000.00000    25500.00000    27000.00000    28500.00000    30000.00000    31500.00000    33000.00000    34500.00000    36000.00000    39000.00000    45000.00000    57000.00000    81000.00000   129000.00000   225000.00000   417000.00000   801000.00000
Y_COORDINATES          65  double
  -801000.00000  -417000.00000  -225000.00000  -129000.00000   -81000.00000   -57000.00000   -45000.00000   -39000.00000   -36000.00000   -34500.00000   -33000.00000   -31500.00000   -30000.00000   -28500.00000   -27000.00000   -25500.00000   -24000.00000   -22500.00000   -21000.00000   -19500.00000   -18000.00000   -16500.00000   -15000.00000   -13500.00000   -12000.00000   -10500.00000    -9000.00000    -7500.00000    -6000.00000    -4500.00000    -3000.00000    -1500.00000        0.00000     1500.00000     3000.00000     4500.00000     6000.00000     7500.00000     9000.00000    10500.00000    12000.00000    13500.00000    15000.00000    16500.00000    18000.00000    19500.00000    21000.00000    22500.00000    24000.00000    25500.00000    27000.00000    28500.00000    30000.00000    31500.00000    33000.00000    34500.00000    36000.00000    39000.00000    45000.00000    57000.00000    81000.00000   129000.00000   225000.00000   417000.00000   801000.00000
Z_COORDINATES          37  double
        0.00000      200.00000      420.00000      662.00000      928.00000     1221.00000     1543.00000     1897.00000     2287.00000     2716.00000     3188.00000     3707.00000     4278.00000     4906.00000     5596.00000     6355.00000     7190.00000     8109.00000     9120.00000    10232.00000    11455.00000    13045.00000    15112.00000    17799.00000    21292.00000    25833.00000    31736.00000    41736.00000    56736.00000    79236.00000   112986.00000   163611.00000   239548.00000   353454.00000   524313.00000   780602.00000  1088148.00000
CELL_DATA      147456
 SCALARS resistivity double 1
 LOOKUP_TABLE table1
      100.00000
      100.00000
      100.00000
      100.00000
      100.00000
      100.00000
      100.00000
      100.00000
      100.00000
      100.00000
      100.00000
      100.00000
      100.00000
      100.00000
      100.00000
      100.00000
      100.00000
      100.00000
      100.00000
      100.00000
      100.00000
      100.00000
      100.00000
      100.00000
      100.00000
      100.00000
      100.00000
      100.00000
      100.00000
      100.00000
      100.00000
      100.00000
      100.00000
      100.00000
      100.00000
      100.00000
      100.00000
      100.00000
      100.00000
      100.00000
      100.00000
      100.00000
      100.00000
      100.00000
      100.00000
      100.00000
      100.00000
      100.00000
      100.00000
      100.00000
      100.00000
      100.00000
      100.00000
      100.00000
      100.00000
      100.00000
      100.00000
      100.00000
      100.00000
      100.00000
      100.00000
      100.00000
      100.00000
      100.00000
      100.00000
      100.00000
      100.00000
      100.00000
      100.00000
      100.00000
      100.00000
      100.00000
      100.00000
      100.00000
      100.00000
      100.00000
      100.00000
      100.00000
      100.00000
      100.00000
      100.00000
      100.00000
      100.00000
      100.00000
      100.00000
      100.00000
      100.00000
      100.00000
      100.00000
      100.00000
      100.00000
      100.00000
      100.00000
      100.00000
      100.00000
      100.00000
      100.00000
      100.00000
      100.00000
      100.00000
      100.00000
      100.00000
      100.00000
      100.00000
      100.00000
      100.00000
      100.00000
      100.00000
      100.00000
      100.00000
      100.00000
      100.00000
      100.00000
      100.00000
      100.00000
      100.00000
      100.00000
      100.00000
      100.00000
      100.00000
      100.00000
      100.00000
      100.00000
      100.00000
      100.00000
      100.00000
      100.00000
      100.00000
      100.00000
      100.00000
      100.00000
      100.00000
      100.00000
      100.00000
      100.00000
      100.00000
      100.00000
      100.00000
      100.00000
      100.00000
      100.00000
      100.00000
      100.00000
      100.00000
      100.00000
      100.00000
      100.00000
      100.00000
      100.00000
      100.00000
      100.00000
      100.00000
      100.00000
      100.00000
      100.00000
      100.00000
      100.00000
      100.00000
      100.00000
      100.00000
      100.00000
      100.00000
      100.00000
      100.00000
      100.00000
      100.00000
      100.00000
      100.00000
      100.00000
      100.00000
      100.00000
      100.00000
      100.00000
      100.00000
      100.00000
      100.00000
      100.00000
      100.00000
      100.00000
      100.00000
      100.00000
      100.00000
      100.00000
      100.00000
      100.00000
      100.00000
      100.00000
      100.00000
      100.00000
      100.00000
      100.00000
      100.00000
      100.00000
      100.00000
      100.00000
      100.00000
      100.00000
      100.00000
      100.00000
      100.00000
      100.00000
      100.00000
      100.00000
      100.00000
      100.00000
      100.00000
      100.00000
      100.00000
      100.00000
      100.00000
      100.00000
      100.00000
      100.00000
      100.00000
      100.00000
      100.00000
      100.00000
      100.00000
      100.00000
      100.00000
      100.00000
      100.00000
      100.00000
      100.00000
      100.00000
      100.00000
      100.00000
      100.00000
      100.00000
      100.00000
      100.00000
      100.00000
      100.00000
      100.00000
      100.00000
      100.00000
      100.00000
      100.00000
      100.00000
      100.00000
      100.00000
      100.00000
      100.00000
      100.00000
      100.00000
      100.00000
      100.00000
      100.00000
      100.00000
      100.00000
      100.00000
      100.00000
      100.00000
      100.00000
      100.00000
      100.00000
      100.00000
      100.00000
      100.00000
      100.00000
      100.00000
      100.00000
      100.00000
      100.00000
      100.00000
      100.00000
      100.00000
      100.00000
      100.00000
      100.00000
      100.00000
      100.00000
      100.00000
      100.00000
      100.00000
      100.00000
      100.00000
      100.00000
      100.00000
      100.00000
      100.00000
      100.00000
      100.00000
      100.00000
      100.00000
      100.00000
      100.00000
      100.00000
      100.00000
      100.00000
      100.00000
      100.00000
      100.00000
      100.00000
      100.00000
      100.00000
      100.00000
      100.00000
      100.00000
      100.00000
      100.00000
      100.00000
      100.00000
      100.00000
      100.00000
      100.00000
      100.00000
      100.00000
      100.00000
      100.00000
      100.00000
      100.00000
      100.00000
      100.00000
      100.00000
      100.00000
      100.00000
      100.00000
      100.00000
      100.00000
      100.00000
      100.00000
      100.00000
      100.00000
      100.00000
       89.06110
       91.74606
       94.23517
       95.78783
       97.25735
       95.59169
       94.83891
       96.77580
       95.95212
       93.69179
       94.08158
       94.46199
       91.93009
       94.48088
       94.59277
       89.82353
       93.46293
       95.91116
       89.73592
       93.17730
       97.12826
       94.88448
       93.18256
       93.77615
       94.08938
       95.12239
       94.68872
       94.17267
       95.85934
       90.96647
       96.16960
       96.16392
       93.82301
       97.84197
       97.07821
       96.29111
       97.27978
       97.21028
       96.80202
       98.03029
       97.79594
       97.24201
       96.72716
       99.40621
       97.96560
       97.10558
       99.12750
       97.48332
       98.35514
       97.55176
       98.71929
       96.70513
       94.26851
       93.34676
      100.00000
      100.00000
      100.00000
      100.00000
      100.00000
      100.00000
      100.00000
      100.00000
      100.00000
      100.00000
       91.12780
       94.24786
       98.07845
      100.59971
       98.24107
       99.97541
       99.91652
       93.52548
       92.44148
       96.53231
       96.93950
       93.78990
       99.01599
       96.33159
       92.48718
      102.95948
      100.13337
       88.22941
      100.93238
       99.54704
       89.65028
       90.16301
       95.89160
       98.62788
      101.61536
       92.73989
      101.83273
      100.19221
       94.42700
      105.86306
       94.42798
       98.32881
      103.98825
       96.14852
       99.32794
      101.04369
       98.42266
       98.72533
       97.74189
       94.35868
       96.76672
       98.20388
      100.11409
       94.66672
       99.15355
      102.55518
       98.47460
      103.12487
      100.67358
      102.34472
       97.42421
       97.05916
       94.88463
       94.42959
      100.00000
      100.00000
      100.00000
      100.00000
      100.00000
      100.00000
      100.00000
      100.00000
      100.00000
      100.00000
       93.44724
       96.97980
       95.79992
       93.17619
       98.68438
       88.77218
       92.10350
      105.27539
       99.78904
       96.49137
       95.86002
      105.94609
       99.78217
      108.84967
      120.96787
      101.80204
      128.57970
      123.93772
      127.50790
      170.49750
      175.36627
      166.66383
      145.66685
      145.27169
      128.62143
      100.65646
      113.94080
      139.01487
       93.56575
       64.17820
       94.57615
      104.84002
       77.38681
       94.51551
      101.95885
       95.80707
      101.80744
       95.51186
       91.19516
      103.78000
      102.83376
       98.19615
       88.80336
      109.68255
       98.25718
       88.59382
      105.02556
       94.63313
       97.89141
       82.27268
      101.79371
       98.88064
       98.37021
       96.01268
      100.00000
      100.00000
      100.00000
      100.00000
      100.00000
      100.00000
      100.00000
      100.00000
      100.00000
      100.00000
       95.77178
       97.87394
       93.39857
       94.83574
       96.06340
       83.50094
       91.37779
      105.33749
       83.52244
       92.16981
      104.72714
       89.96245
       94.03373
      105.31619
       79.40241
      111.22997
      162.50073
      129.77827
      183.34654
      262.84330
      151.62244
      337.99096
       91.22533
      115.62175
      129.05932
       63.74838
       98.74560
       92.72843
       92.62115
       96.03602
       92.89786
      109.07186
       97.69172
       87.55059
      107.08702
       99.54474
      107.64388
       93.73712
      102.77322
       95.52198
      101.93595
       93.72659
       96.41709
       99.85755
       99.32250
       94.85328
      107.27397
       90.75879
       98.98078
       89.17691
       90.66032
       89.98495
      101.55569
       96.72933
      100.00000
      100.00000
      100.00000
      100.00000
      100.00000
      100.00000
      100.00000
      100.00000
      100.00000
      100.00000
       97.43448
       96.06967
       98.28184
       94.59878
       97.15762
      117.56106
       97.56939
       93.40558
      108.83389
      105.14369
      114.47608
      124.19365
      114.41530
      114.11889
      158.77582
      131.26027
      138.62769
      208.40542
      153.04556
      179.91807
       71.93936
      109.00274
      106.61899
      143.85039
      121.87846
      111.67053
      111.57804
      100.01939
       93.72972
      104.58586
      123.62089
       95.14101
      100.01969
      116.45188
       97.06186
       95.52091
      110.28290
      104.29002
      107.95462
       96.01200
       98.31943
       95.46689
      110.32346
       90.40281
       96.97977
      111.11860
       93.88065
       90.76854
      108.17240
       97.48464
       93.46711
       94.29880
       99.08489
       98.15530
      100.00000
      100.00000
      100.00000
      100.00000
      100.00000
      100.00000
      100.00000
      100.00000
      100.00000
      100.00000
       96.37148
       97.17348
       97.68637
      106.70108
       96.42068
       94.15888
      122.42133
       79.03609
      109.06929
       90.05284
       82.15613
      144.42619
       53.18454
       75.81018
      162.31214
       31.35500
      110.35175
      258.35771
       42.77603
      101.87864
      159.47804
       93.52077
      192.17332
       79.24450
      135.08165
       32.66015
       90.17981
      141.43957
      102.55025
       73.16625
       98.74989
      111.52988
       95.68151
      117.70191
      105.68831
       85.77245
      107.09223
      104.65967
       88.39134
      107.35200
      111.17690
       98.70270
      116.84268
      104.20998
      102.21498
      101.88193
      104.48495
      103.63561
       99.76738
      106.67816
       89.77221
       93.87295
       99.59609
       97.51206
      100.00000
      100.00000
      100.00000
      100.00000
      100.00000
      100.00000
      100.00000
      100.00000
      100.00000
      100.00000
       96.02856
       98.00492
       95.67290
       89.47424
       99.64476
       69.65992
       91.58215
      135.73070
       79.57194
       92.30583
      110.56631
       81.77717
       99.16390
      132.37892
       40.85745
      160.59777
      193.99457
       58.54877
     1014.92600
      242.22143
      192.35247
      548.40001
       45.31125
      144.37042
      269.94498
       62.23214
       90.71530
       98.00532
       95.08909
       81.61147
      111.50298
       99.67148
       97.63152
       99.49926
      105.41566
       95.77940
       92.14532
      107.48921
       90.37265
       95.63667
      120.93990
       99.64861
      106.25655
       97.14505
       97.60649
      103.46223
      112.12681
       98.95261
      103.15899
      104.03001
      102.04469
       99.70390
       97.45967
       98.00669
      100.00000
      100.00000
      100.00000
      100.00000
      100.00000
      100.00000
      100.00000
      100.00000
      100.00000
      100.00000
       97.31159
       96.03613
      107.00358
      102.02336
      113.40253
      148.38949
       99.91110
      124.65039
      121.86582
      109.07876
      114.62537
      161.35956
      189.99721
      118.33257
      184.45021
      331.83331
      184.43176
      117.80731
      107.45064
      154.20389
      279.06215
      392.64119
      174.07344
      199.34394
      230.75423
      128.44350
      117.73211
       84.15623
       97.15383
      111.74879
      155.13449
      107.90693
      120.48544
      106.11743
       92.13695
      122.04568
      110.41469
       95.32671
      113.74926
      114.14312
       99.05188
      122.36828
      115.15721
      109.56122
      105.56851
       98.50087
      108.35800
       99.93979
      113.86023
       93.40567
      104.19570
      103.73438
       95.64491
       98.58844
      100.00000
      100.00000
      100.00000
      100.00000
      100.00000
      100.00000
      100.00000
      100.00000
      100.00000
      100.00000
       95.45546
       99.42069
       95.17278
      113.25666
      103.02650
       91.88013
      125.91627
      101.35340
      111.34920
      111.27206
      108.39539
      218.33914
       70.90699
      152.95729
      133.89087
      205.54084
      339.30104
      204.27810
      168.40046
      315.53306
      197.86130
       81.03453
       13.87564
      106.20868
      114.76760
       25.64622
       96.45134
      122.55315
      163.46659
       96.52610
      117.61011
      103.13153
       95.22178
      109.01367
      111.89049
       91.85238
      107.57799
      116.77161
       81.46550
      116.36110
      106.71623
       76.32275
      114.70066
       97.36129
       88.96435
       95.92113
      104.87192
      104.09429
      100.37523
      116.23151
      102.98665
       96.64931
       98.60175
       97.47859
      100.00000
      100.00000
      100.00000
      100.00000
      100.00000
      100.00000
      100.00000
      100.00000
      100.00000
      100.00000
       96.37995
       97.26009
       97.56743
       88.59533
      104.41901
       98.39088
       91.48048
      104.23471
      100.05645
       95.32492
       93.46887
      178.29696
       95.91116
       44.26373
      100.48358
      152.10695
      137.13888
       53.08575
      183.57398
      161.50464
      246.01394
      600.55801
       43.68310
      214.22488
      244.00492
       95.82934
       87.74445
      120.66567
      103.34494
       96.58140
       82.96320
       94.57588
       86.89562
      103.87508
       98.16859
       95.58289
       97.40587
       98.82393
       91.56220
      107.97192
       96.90091
       94.33026
      104.68156
      100.13911
       93.72840
       98.84176
       99.63361
       92.78959
      105.26103
       97.69881
       95.52137
      100.14320
       98.20360
       97.76622
      100.00000
      100.00000
      100.00000
      100.00000
      100.00000
      100.00000
      100.00000
      100.00000
      100.00000
      100.00000
       98.81236
       93.81691
      119.34829
       88.33471
      114.60183
      118.73783
       91.79877
      131.49148
      112.34570
      109.52818
      125.61466
       94.28760
      180.24861
       78.88448
       89.14698
      287.81649
      225.62925
      113.92166
      140.25085
       82.23227
      219.92141
      111.79925
       22.44302
      275.98081
      156.22797
      103.38635
      133.30838
      109.21963
      182.39168
       99.73695
      105.28196
      109.62020
      109.42773
      109.18362
       96.70229
      107.55093
       98.26085
       92.41410
      118.01387
       98.90218
       94.05293
      116.25979
       95.97770
       97.96313
       92.63493
      105.20255
      100.13861
       96.86137
      111.23648
       98.96934
      106.43795
      106.36471
       96.41782
       98.56445
      100.00000
      100.00000
      100.00000
      100.00000
      100.00000
      100.00000
      100.00000
      100.00000
      100.00000
      100.00000
       95.85065
      100.41772
      105.14951
      112.08061
      107.32690
      114.12157
      109.91674
      109.83477
      130.07159
      136.88642
      164.33365
      183.25262
      154.42264
      274.78022
      142.53359
      467.03949
      561.07627
      141.25567
       87.50846
      204.98478
      178.16389
      123.21492
       41.78923
      209.90730
      169.22205
       38.30881
      174.69938
      142.13849
      104.50257
       87.57076
      105.59767
      114.66730
      100.22930
      109.84285
      111.38035
       94.12863
      105.09772
      118.12888
       98.86395
      110.91342
      124.53259
      106.32010
      104.90811
      118.75465
      112.18279
      103.72268
      109.84136
      109.26907
      104.97988
      103.14891
       98.06735
      105.45142
       96.38768
       98.35207
      100.00000
      100.00000
      100.00000
      100.00000
      100.00000
      100.00000
      100.00000
      100.00000
      100.00000
      100.00000
       96.68143
       99.70698
      107.79316
       88.75419
       98.69220
      116.62551
       93.33988
      102.98869
      167.27180
      103.58269
       72.47408
      209.81534
      109.81228
       49.31214
      167.11358
      224.79637
      160.28040
      105.40188
      240.72068
       84.70665
      146.38355
      420.86559
      100.05602
      245.80754
      198.32128
      113.63449
      107.04260
      112.34300
      107.52614
       88.90063
       85.12698
      101.06104
       88.72399
      111.40595
       92.58394
       91.09415
       98.82464
       99.96067
       90.10240
      105.80837
      105.25258
       91.94263
      114.01939
      105.97181
       95.51377
      103.42107
      100.57890
       95.25773
      101.14589
      102.74625
       98.83974
       97.98284
       98.70998
       97.73227
      100.00000
      100.00000
      100.00000
      100.00000
      100.00000
      100.00000
      100.00000
      100.00000
      100.00000
      100.00000
       97.90561
       98.10092
      113.95124
       98.75771
      114.36761
      108.22877
       96.49868
      130.50763
       81.19530
       89.92895
      140.72636
       75.06545
      100.33731
      107.14087
       55.91581
      172.10439
      203.50695
      238.83525
      171.11799
      122.19645
      263.60575
      129.56586
       52.60970
      189.64905
       98.70296
      105.01276
      123.59234
       76.51254
       97.50074
      122.65456
      121.40300
       99.14958
      102.27015
      100.67138
      100.43437
      108.06574
      101.74839
      102.11132
      110.60644
      107.75373
      105.60606
      105.19285
      116.11600
      102.62025
      103.08021
      113.95870
      102.87637
      102.37681
      104.29281
      106.86082
      104.96542
       98.62349
       99.02684
       98.05027
      100.00000
      100.00000
      100.00000
      100.00000
      100.00000
      100.00000
      100.00000
      100.00000
      100.00000
      100.00000
       96.56038
      100.10633
      108.28206
      107.66891
      122.69950
      113.20289
      110.71547
      110.24071
      131.66852
      117.10144
      145.04638
      143.74097
      120.15059
      179.74093
      133.11152
      185.04825
      232.59016
      220.18638
      179.95477
      140.56454
      121.45665
       90.30333
      102.29064
      148.02808
      112.19360
       75.61123
      205.40797
      147.01399
      122.05083
      103.99535
      122.13559
      106.33924
      114.62376
      125.04222
      124.43115
      116.15929
      106.37114
      113.70890
      102.86202
      101.11109
      109.02332
      102.63727
      119.90174
       97.33031
      104.55029
      112.16327
      115.40670
      101.44797
       99.99169
       99.47727
      104.47754
       97.70014
      100.32321
       97.52264
      100.00000
      100.00000
      100.00000
      100.00000
      100.00000
      100.00000
      100.00000
      100.00000
      100.00000
      100.00000
       97.93983
       95.13843
      119.95072
       94.97231
      114.01336
      124.08907
       89.08513
       96.76939
      170.69104
      101.75448
       80.57917
      178.54144
      130.07197
       80.40756
      152.89550
      167.34141
      148.23007
      201.28302
      866.98572
       46.46406
       91.83618
      240.32053
       99.13968
      157.80940
      146.58590
      119.19355
      117.90528
      121.17862
      116.79790
       95.14501
      105.56398
      117.38185
      100.73312
       98.94947
      115.50161
       99.52151
      111.19603
      105.00809
       90.68905
       98.67145
       95.23020
       99.31869
      106.68085
      105.44014
       94.39901
       94.80946
      101.94869
       93.06456
       94.14267
      100.88135
       92.21531
      103.72658
       98.64974
       98.46993
      100.00000
      100.00000
      100.00000
      100.00000
      100.00000
      100.00000
      100.00000
      100.00000
      100.00000
      100.00000
       98.47996
       95.65923
      111.12043
      103.29208
      119.88057
       99.39780
       92.32820
      130.83021
       77.88655
       96.72160
      131.07401
       72.95014
      115.23408
      109.84545
       60.30359
      159.95921
      137.17035
       79.87849
       68.23932
      118.91530
      136.93483
      115.53972
      104.95862
      141.10345
       96.38268
      119.97553
      115.60825
       65.73800
       78.64954
      190.32733
      108.84185
      112.42939
      112.24859
      108.29362
      114.41740
      108.70503
      125.24077
      101.15383
       90.90779
      109.15213
      105.69272
      102.33684
       91.15150
      108.18489
      100.85932
      103.42540
       96.36433
      111.81662
      109.64067
      110.72912
       95.47081
      104.14954
       99.00506
       98.65223
      100.00000
      100.00000
      100.00000
      100.00000
      100.00000
      100.00000
      100.00000
      100.00000
      100.00000
      100.00000
       98.83827
       94.62585
      128.00230
      105.04225
       99.07058
      113.85036
      103.36850
      112.26717
      127.95270
      108.35325
      137.42942
      137.85391
      112.46244
      125.78419
      140.60110
      126.21565
      162.70718
      128.54585
      101.98032
      159.61497
      139.64733
       55.41509
      138.17424
      142.32182
      111.88004
       99.00527
      171.66947
      127.91153
      149.26918
      129.88431
      105.17909
      114.58973
      110.66102
      122.81847
      124.55409
      123.46691
      110.67450
      112.62822
      107.66233
      105.31530
      116.39022
      109.49827
       98.50720
      109.93623
       96.77318
       98.51859
      111.74205
       91.27644
       93.69965
      103.28148
       92.05329
       99.58713
       99.88585
       97.91482
      100.00000
      100.00000
      100.00000
      100.00000
      100.00000
      100.00000
      100.00000
      100.00000
      100.00000
      100.00000
       96.88896
      102.79347
      100.16523
       93.84990
      107.29089
      124.51814
       95.46532
       98.48135
      151.89236
       97.97075
      105.49498
      139.34810
      109.73346
      106.20575
      146.83719
      136.39903
      128.46022
       73.17706
      218.69804
       72.33024
       57.54250
      148.89623
       94.40165
      136.16227
      135.55165
      120.04779
      133.83633
      143.83184
      118.03204
      114.21375
      110.70870
      124.07823
       96.07982
      108.40814
      130.73260
       99.06186
      109.15129
      108.48806
       92.77392
       98.90004
      100.24057
       90.87095
       99.10293
      102.52230
       94.41346
      100.43465
       99.54398
       91.77262
       91.93713
      104.75796
       98.59811
      100.92732
       97.62668
       98.63482
      100.00000
      100.00000
      100.00000
      100.00000
      100.00000
      100.00000
      100.00000
      100.00000
      100.00000
      100.00000
       97.91843
      102.72787
      104.33615
       92.81878
      114.58060
       97.24104
       95.94303
      118.11622
       89.04710
      109.06091
      123.67935
       83.02040
      113.89825
       99.61047
       63.07217
      130.67940
       91.20464
       80.25835
      100.56601
      122.53335
      124.31522
      126.36079
      125.51180
      128.10255
      119.44554
      112.96534
      127.02294
       80.54454
      103.45191
      156.48655
       92.70041
      115.47927
      101.74310
      135.71623
      119.48254
       97.47393
      135.96432
      105.30675
      103.11777
      118.11447
      101.57851
      103.88948
      118.45335
      100.90214
      102.60306
      109.20831
       97.40789
      103.41572
      106.94226
       98.76511
      100.56822
      101.92729
       97.69006
       98.67188
      100.00000
      100.00000
      100.00000