# vtk DataFile Version 3.0
 Rectilinear Grid
 ASCII
 DATASET RECTILINEAR_GRID
DIMENSIONS          65          65          37
X_COORDINATES          65  double
  -801000.00000  -417000.00000  -225000.00000  -129000.00000   -81000.00000   -57000.00000   -45000.00000   -39000.00000   -36000.00000   -34500.00000   -33000.00000   -31500.00000   -30000.00000   -28500.00000   -27000.00000   -25500.00000   -24000.00000   -22500.00000   -21000.00000   -19500.00000   -18000.00000   -16500.00000   -15000.00000   -13500.00000   -12000.00000   -10500.00000    -9000.00000    -7500.00000    -6000.00000    -4500.00000    -3000.00000    -1500.00000        0.00000     1500.00000     3000.00000     4500.00000     6000.00000     7500.00000     9000.00000    10500.00000    12000.00000    13500.00000    15000.00000    16500.00000    18000.00000    19500.00000    21000.00000    22500.00000    24000.00000    25500.00000    27000.00000    28500.00000    30000.00000    31500.00000    33000.00000    34500.00000    36000.00000    39000.00000    45000.00000    57000.00000    81000.00000   129000.00000   225000.00000   417000.00000   801000.00000
Y_COORDINATES          65  double
  -801000.00000  -417000.00000  -225000.00000  -129000.00000   -81000.00000   -57000.00000   -45000.00000   -39000.00000   -36000.00000   -34500.00000   -33000.00000   -31500.00000   -30000.00000   -28500.00000   -27000.00000   -25500.00000   -24000.00000   -22500.00000   -21000.00000   -19500.00000   -18000.00000   -16500.00000   -15000.00000   -13500.00000   -12000.00000   -10500.00000    -9000.00000    -7500.00000    -6000.00000    -4500.00000    -3000.00000    -1500.00000        0.00000     1500.00000     3000.00000     4500.00000     6000.00000     7500.00000     9000.00000    10500.00000    12000.00000    13500.00000    15000.00000    16500.00000    18000.00000    19500.00000    21000.00000    22500.00000    24000.00000    25500.00000    27000.00000    28500.00000    30000.00000    31500.00000    33000.00000    34500.00000    36000.00000    39000.00000    45000.00000    57000.00000    81000.00000   129000.00000   225000.00000   417000.00000   801000.00000
Z_COORDINATES          37  double
        0.00000      200.00000      420.00000      662.00000      928.00000     1221.00000     1543.00000     1897.00000     2287.00000     2716.00000     3188.00000     3707.00000     4278.00000     4906.00000     5596.00000     6355.00000     7190.00000     8109.00000     9120.00000    10232.00000    11455.00000    13045.00000    15112.00000    17799.00000    21292.00000    25833.00000    31736.00000    41736.00000    56736.00000    79236.00000   112986.00000   163611.00000   239548.00000   353454.00000   524313.00000   780602.00000  1088148.00000
CELL_DATA      147456
 SCALARS resistivity double 1
 LOOKUP_TABLE table1
      100.00000
      100.00000
      100.00000
      100.00000
      100.00000
      100.00000
      100.00000
      100.00000
      100.00000
      100.00000
      100.00000
      100.00000
      100.00000
      100.00000
      100.00000
      100.00000
      100.00000
      100.00000
      100.00000
      100.00000
      100.00000
      100.00000
      100.00000
      100.00000
      100.00000
      100.00000
      100.00000
      100.00000
      100.00000
      100.00000
      100.00000
      100.00000
      100.00000
      100.00000
      100.00000
      100.00000
      100.00000
      100.00000
      100.00000
      100.00000
      100.00000
      100.00000
      100.00000
      100.00000
      100.00000
      100.00000
      100.00000
      100.00000
      100.00000
      100.00000
      100.00000
      100.00000
      100.00000
      100.00000
      100.00000
      100.00000
      100.00000
      100.00000
      100.00000
      100.00000
      100.00000
      100.00000
      100.00000
      100.00000
      100.00000
      100.00000
      100.00000
      100.00000
      100.00000
      100.00000
      100.00000
      100.00000
      100.00000
      100.00000
      100.00000
      100.00000
      100.00000
      100.00000
      100.00000
      100.00000
      100.00000
      100.00000
      100.00000
      100.00000
      100.00000
      100.00000
      100.00000
      100.00000
      100.00000
      100.00000
      100.00000
      100.00000
      100.00000
      100.00000
      100.00000
      100.00000
      100.00000
      100.00000
      100.00000
      100.00000
      100.00000
      100.00000
      100.00000
      100.00000
      100.00000
      100.00000
      100.00000
      100.00000
      100.00000
      100.00000
      100.00000
      100.00000
      100.00000
      100.00000
      100.00000
      100.00000
      100.00000
      100.00000
      100.00000
      100.00000
      100.00000
      100.00000
      100.00000
      100.00000
      100.00000
      100.00000
      100.00000
      100.00000
      100.00000
      100.00000
      100.00000
      100.00000
      100.00000
      100.00000
      100.00000
      100.00000
      100.00000
      100.00000
      100.00000
      100.00000
      100.00000
      100.00000
      100.00000
      100.00000
      100.00000
      100.00000
      100.00000
      100.00000
      100.00000
      100.00000
      100.00000
      100.00000
      100.00000
      100.00000
      100.00000
      100.00000
      100.00000
      100.00000
      100.00000
      100.00000
      100.00000
      100.00000
      100.00000
      100.00000
      100.00000
      100.00000
      100.00000
      100.00000
      100.00000
      100.00000
      100.00000
      100.00000
      100.00000
      100.00000
      100.00000
      100.00000
      100.00000
      100.00000
      100.00000
      100.00000
      100.00000
      100.00000
      100.00000
      100.00000
      100.00000
      100.00000
      100.00000
      100.00000
      100.00000
      100.00000
      100.00000
      100.00000
      100.00000
      100.00000
      100.00000
      100.00000
      100.00000
      100.00000
      100.00000
      100.00000
      100.00000
      100.00000
      100.00000
      100.00000
      100.00000
      100.00000
      100.00000
      100.00000
      100.00000
      100.00000
      100.00000
      100.00000
      100.00000
      100.00000
      100.00000
      100.00000
      100.00000
      100.00000
      100.00000
      100.00000
      100.00000
      100.00000
      100.00000
      100.00000
      100.00000
      100.00000
      100.00000
      100.00000
      100.00000
      100.00000
      100.00000
      100.00000
      100.00000
      100.00000
      100.00000
      100.00000
      100.00000
      100.00000
      100.00000
      100.00000
      100.00000
      100.00000
      100.00000
      100.00000
      100.00000
      100.00000
      100.00000
      100.00000
      100.00000
      100.00000
      100.00000
      100.00000
      100.00000
      100.00000
      100.00000
      100.00000
      100.00000
      100.00000
      100.00000
      100.00000
      100.00000
      100.00000
      100.00000
      100.00000
      100.00000
      100.00000
      100.00000
      100.00000
      100.00000
      100.00000
      100.00000
      100.00000
      100.00000
      100.00000
      100.00000
      100.00000
      100.00000
      100.00000
      100.00000
      100.00000
      100.00000
      100.00000
      100.00000
      100.00000
      100.00000
      100.00000
      100.00000
      100.00000
      100.00000
      100.00000
      100.00000
      100.00000
      100.00000
      100.00000
      100.00000
      100.00000
      100.00000
      100.00000
      100.00000
      100.00000
      100.00000
      100.00000
      100.00000
      100.00000
      100.00000
      100.00000
      100.00000
      100.00000
      100.00000
      100.00000
      100.00000
      100.00000
      100.00000
      100.00000
      100.00000
      100.00000
      100.00000
      100.00000
      100.00000
      100.00000
      100.00000
      100.00000
      100.00000
      100.00000
      100.00000
       97.46070
       95.91779
       95.36989
       95.68539
       96.63824
       96.56170
       96.79476
       96.02164
       96.13298
       95.45697
       95.20107
       95.82376
       95.19816
       95.62427
       97.61032
       94.36891
       97.10449
      102.80031
       94.59383
      104.51737
      102.59014
      101.24782
       99.76645
       98.75222
       99.06202
       96.60772
       96.87609
       97.87095
       94.64171
       91.51861
       93.14507
       94.28114
       94.27200
       95.42612
       96.42848
       96.58831
       96.99986
       97.01644
       96.73707
       97.53545
       97.72635
       97.69394
       97.34952
       98.16673
       98.19848
       97.92607
       98.40139
       98.17975
       97.90217
       96.81899
       97.37899
       96.60631
       96.53319
       97.61220
      100.00000
      100.00000
      100.00000
      100.00000
      100.00000
      100.00000
      100.00000
      100.00000
      100.00000
      100.00000
       95.38906
       93.12407
       93.30402
       94.52461
       94.64246
       94.96872
       94.89181
       96.11333
       93.22142
       94.89176
       96.17648
       93.90800
       97.94399
       99.33624
       93.04385
      105.57821
      105.42005
       92.18646
      125.47356
      111.58326
      120.46524
      107.59928
      105.16705
      110.20621
       99.80890
       98.28578
      103.16759
       96.16864
       93.69255
       92.43836
       87.26683
       91.07532
       94.11276
       91.91777
       94.54017
       96.35396
       95.41136
       95.43170
       96.30552
       94.82887
       96.90794
       96.39560
       96.47227
       96.51495
       97.07624
       96.97904
       97.46183
       96.70786
       95.50795
       95.72102
       94.11403
       94.60043
       94.49022
       96.32670
      100.00000
      100.00000
      100.00000
      100.00000
      100.00000
      100.00000
      100.00000
      100.00000
      100.00000
      100.00000
       94.54663
       92.34065
       86.98732
       92.76848
       97.57680
       90.29855
       95.41231
       95.84986
       95.16626
       95.42373
       95.53764
       98.98667
       99.22945
      101.56663
      117.29078
       98.11287
      115.56164
      153.27691
       97.37793
      186.09569
      182.34602
      137.57425
      118.27595
      132.60829
      130.00069
       92.64775
      108.25210
      121.07134
       86.92447
       78.30583
       87.12002
       94.72255
       86.11819
       86.23551
       95.93873
       93.80601
       91.70500
       95.40167
       93.86628
       95.63451
       99.49019
       96.84637
       90.43476
       99.67225
       97.72411
       92.32006
       98.02390
       93.59456
       91.83856
       89.01736
       96.72309
       91.97481
       94.20356
       96.25943
      100.00000
      100.00000
      100.00000
      100.00000
      100.00000
      100.00000
      100.00000
      100.00000
      100.00000
      100.00000
       94.82398
       93.68226
       90.93455
      102.18593
       98.76179
       88.79566
       97.93675
      105.01832
       89.23376
       98.09411
      106.65046
       90.45176
       96.97712
      112.01475
       86.68662
       97.21944
      151.97676
       98.68577
      103.14137
      245.08308
      262.50789
      131.48652
      131.28634
      154.27357
       85.94410
       87.47014
      119.25873
       89.06091
       90.95804
      109.87993
       83.47688
      108.82259
      100.12177
       89.53424
      104.00050
      101.70872
       97.35153
      104.00625
      105.69669
       94.78641
      101.47896
       99.85538
       97.01728
       99.83062
      102.24757
       96.39861
      103.31196
       96.46168
       93.65910
       94.89679
       96.72318
       89.10951
       94.96855
       96.33029
      100.00000
      100.00000
      100.00000
      100.00000
      100.00000
      100.00000
      100.00000
      100.00000
      100.00000
      100.00000
       96.36669
       93.68790
      102.17072
      101.19627
       89.88821
      108.06680
       99.97284
       89.41760
      108.47002
      103.03214
       96.23918
      117.92394
      110.65755
      100.14587
      136.98585
      118.20057
      112.48896
      184.63095
      136.30316
      146.60740
      242.52109
      159.05509
      255.88563
      136.46467
      116.50456
      187.76302
      105.27019
      113.03506
      105.10656
       98.76954
      119.93827
       82.67899
      102.40160
      113.33775
       91.24455
       98.60456
      108.54103
       94.56695
      103.73910
      103.78207
       94.64581
       99.84700
      106.14405
       93.81779
      101.92021
      106.07289
       95.82755
       96.23854
      102.64666
       93.20656
       94.16184
       95.05052
       93.96653
       97.38530
      100.00000
      100.00000
      100.00000
      100.00000
      100.00000
      100.00000
      100.00000
      100.00000
      100.00000
      100.00000
       96.22749
       96.17284
       93.56103
      102.59361
      100.33900
       98.06735
      102.50778
       99.69236
      100.23804
      101.92657
      101.74281
      108.37838
      100.65625
      108.02909
      122.77680
      103.09510
      125.71680
      146.73460
       97.09583
      252.78165
      352.94785
      296.81186
      103.54723
      179.00125
      204.30472
       92.56062
      123.67096
      134.95060
       95.91025
       97.06486
      112.15643
      111.54783
       93.53369
      105.61100
      103.47811
       95.87461
      101.75545
      103.85815
      101.86347
      102.39987
      106.97047
      105.28573
      102.45628
      103.74206
      102.55677
      101.24738
      106.32050
      101.09996
       98.18621
      101.21882
       94.39694
       91.98785
       95.57574
       97.20468
      100.00000
      100.00000
      100.00000
      100.00000
      100.00000
      100.00000
      100.00000
      100.00000
      100.00000
      100.00000
       96.47868
       96.38761
       92.30917
       95.53146
       97.24395
       94.58110
       94.21827
      100.60562
       94.79940
       91.83203
       97.75210
       97.28967
       87.89692
      112.73867
      106.31980
       89.86873
      150.52028
      117.03907
      120.29928
      274.37716
      289.16134
      107.38183
      139.76927
      158.76765
       94.01327
      102.66982
      113.58749
       99.77196
       95.27085
       91.38760
       97.11106
      105.19495
       94.23975
       92.88297
      100.23090
       97.07297
       95.41466
      101.73386
       99.83803
      102.89646
      107.96487
      105.49560
      106.03436
      101.96423
      101.72622
      102.69969
      105.20037
      103.11343
      103.10644
      101.70497
      102.73594
       96.68999
       95.97961
       97.57286
      100.00000
      100.00000
      100.00000
      100.00000
      100.00000
      100.00000
      100.00000
      100.00000
      100.00000
      100.00000
       98.06393
       95.44248
      108.23948
      102.93357
      104.13095
      108.55999
      103.31762
      103.59080
      105.75983
      104.55399
      107.15638
      116.39310
      111.77709
      118.11121
      152.23136
      144.45681
      164.43004
      239.48100
      262.10280
      181.28776
      275.44134
      178.29608
      329.61198
      157.16246
      105.28644
      238.43431
      151.01831
      104.95868
      116.51039
      108.94301
      112.59720
       94.15609
      119.43911
      110.90219
       97.38012
      110.28100
      107.09384
      100.79144
      106.28233
      110.16591
      103.71433
      106.05288
      109.65950
      101.44747
      101.55440
      102.99948
      100.26643
      104.26049
      108.14709
       98.84442
      104.02755
       98.89486
       96.69754
       97.69261
      100.00000
      100.00000
      100.00000
      100.00000
      100.00000
      100.00000
      100.00000
      100.00000
      100.00000
      100.00000
       96.90360
      100.00520
       95.93772
      113.52610
      107.55076
      108.67935
      107.93552
      104.44919
      110.21716
      107.33724
      107.48022
      128.08278
      103.15876
      117.75882
      140.85090
      130.55258
      182.75163
      170.03896
      185.02045
      329.87723
      431.58220
      514.50264
      119.83623
      207.26778
      187.08000
      100.71147
      132.17048
      125.60895
      108.49377
      108.78480
      129.72056
      119.61757
       92.23893
      114.24967
      106.94559
      100.35914
      106.90559
      104.18385
      101.50866
      106.85731
      103.04913
      100.72274
      103.20234
      100.01713
       97.06840
       98.57361
      102.34885
      101.90979
      103.50202
      107.79502
      101.81164
       96.54751
       97.32396
       97.77513
      100.00000
      100.00000
      100.00000
      100.00000
      100.00000
      100.00000
      100.00000
      100.00000
      100.00000
      100.00000
       97.76029
       98.36258
       97.68598
       95.67064
      101.17986
      100.39405
       95.46227
      101.09101
       98.91128
       90.32143
      105.62484
      111.49476
       86.75587
      117.02209
      147.51497
      102.06165
      169.11540
      168.34027
      120.67024
      219.81594
      264.03846
      154.20910
      190.83253
      125.89142
       99.72856
      134.33170
      120.39817
      100.02975
      107.13518
       92.38474
      104.22247
      104.16493
       93.36407
       99.49340
      101.54675
       98.14489
      100.27706
       99.93455
       96.99758
      101.91756
      101.65062
       99.90627
      100.81613
      100.54256
       98.86019
       99.57294
       99.47438
       97.81039
      101.93450
      101.11356
      101.74522
       98.52020
       97.61702
       97.96886
      100.00000
      100.00000
      100.00000
      100.00000
      100.00000
      100.00000
      100.00000
      100.00000
      100.00000
      100.00000
       99.58914
       97.81529
      112.04673
      100.64636
      111.17879
      107.16437
      109.97122
      114.62567
      109.87589
      111.96342
      122.01145
      115.55372
      119.00646
      127.74383
      149.97176
      144.97826
      170.72708
      200.42061
      197.40189
      194.12186
      311.74968
      129.56928
      271.25570
      147.18296
       77.00739
      195.30411
      165.15575
      102.04388
      124.83059
      109.12329
      104.09255
       98.47327
      121.44320
      109.05929
      102.40246
      105.21251
      102.12035
      102.74681
      105.27638
      105.61998
      105.13900
      104.48050
      103.23986
      101.47353
       99.56146
      101.39109
      100.37174
      101.55105
      103.69930
       98.26141
      104.21820
      102.41033
       97.91155
       98.21435
      100.00000
      100.00000
      100.00000
      100.00000
      100.00000
      100.00000
      100.00000
      100.00000
      100.00000
      100.00000
       98.55690
      103.64481
      102.29205
      114.78579
      109.18106
      115.42618
      111.10337
      112.67250
      122.67149
      115.77368
      118.55854
      131.31066
      114.64034
      128.03488
      130.32322
      153.40286
      214.93065
      168.37401
      180.81722
      224.42347
      286.86179
      347.92117
      124.75023
      188.63547
      155.59297
       91.99257
      143.63178
      114.54452
      110.36101
      108.38566
      125.40574
      127.18071
       90.62273
      109.84655
      108.34084
       95.55790
      106.68358
      106.80140
      102.58145
      107.61882
      110.76194
      105.50023
      106.21085
      108.75266
      105.90986
      102.95637
      105.75261
      104.79972
      101.87663
      103.26302
      100.90595
       99.05967
       97.82105
       98.08917
      100.00000
      100.00000
      100.00000
      100.00000
      100.00000
      100.00000
      100.00000
      100.00000
      100.00000
      100.00000
       99.40066
      100.76461
      102.43153
       93.92136
      100.71531
      103.43199
       94.86199
      109.28921
      110.85050
       94.43217
      113.59030
      118.79292
       87.83904
      115.15552
      144.61666
      116.90518
      192.04264
      181.31553
      107.31060
      154.01850
      145.01974
      139.37533
      193.54724
      109.53967
      110.38570
      192.96168
      133.41236
      101.78530
      112.35668
       93.23369
      111.29004
      104.15083
       91.28824
      108.32356
      102.50363
       94.68103
      101.85204
      100.43527
       92.45685
      103.02843
      106.52153
       99.46608
      107.91100
      105.44307
      101.83658
      103.35503
      102.73215
      102.34853
      101.66346
      100.57987
      101.37165
       97.57845
       97.42033
       97.91349
      100.00000
      100.00000
      100.00000
      100.00000
      100.00000
      100.00000
      100.00000
      100.00000
      100.00000
      100.00000
      100.23278
      101.18565
      110.15292
      104.89490
      116.47177
      110.11565
      111.53351
      120.33259
      114.04056
      116.81253
      129.65529
      122.64095
      124.53734
      129.02201
      154.71204
      170.98902
      215.97055
      254.69020
      178.28626
      173.19965
      177.38060
       97.59118
      184.94030
      130.16549
       76.63124
      186.44925
      164.96701
      104.38273
      126.59987
      110.34374
      113.37240
      105.91373
      116.74755
      109.73788
      108.14870
      109.63183
      104.53910
      104.64547
      103.42121
      108.69160
      105.97211
      104.62137
      111.15338
      105.73132
      107.00974
      109.26301
      104.69411
      105.46290
      104.14931
      100.59361
      102.71002
       99.10104
       97.20428
       98.16644
      100.00000
      100.00000
      100.00000
      100.00000
      100.00000
      100.00000
      100.00000
      100.00000
      100.00000
      100.00000
       99.42387
      105.03316
      107.39710
      115.26165
      114.62649
      119.41414
      112.35664
      112.51791
      124.99278
      114.98602
      117.35197
      130.36724
      115.48716
      129.66413
      134.17790
      151.59004
      226.03908
      215.56327
      167.66897
      183.43862
      197.28992
      204.57086
      116.69076
      161.14242
      128.34397
       91.28463
      143.22079
      112.89995
      116.16581
      109.02085
      126.14330
      130.37009
      100.15134
      113.79635
      119.66526
      104.76399
      110.67640
      108.11296
      101.47361
      104.33800
      104.56231
      102.61722
      107.99181
      104.79013
      104.72155
      108.35650
      108.06395
      103.44800
      101.03683
      103.63848
      103.35053
       94.67737
       98.82384
       97.81580
      100.00000
      100.00000
      100.00000
      100.00000
      100.00000
      100.00000
      100.00000
      100.00000
      100.00000
      100.00000
       99.95965
      101.42642
      109.05134
       96.87588
      108.24220
      106.47141
       90.90159
      105.48838
      111.77245
       91.54188
      108.74506
      118.47314
       92.32319
      110.60590
      134.74543
      111.79136
      139.36178
      181.13429
      102.77136
      112.32169
      120.98698
      121.18282
      164.23989
      123.01797
      109.58708
      170.24475
      133.77186
      104.94913
      125.96999
      100.98757
      121.54730
      112.97843
       97.42320
      113.54269
      112.45132
      101.57378
      111.46713
      104.52510
       93.60446
       99.87810
      100.82179
       98.44177
      104.58480
      104.69463
       99.90973
      101.66086
      100.87171
       97.58404
       99.10893
       98.33049
       98.68704
      100.18372
       97.37658
       98.58766
      100.00000
      100.00000
      100.00000
      100.00000
      100.00000
      100.00000
      100.00000
      100.00000
      100.00000
      100.00000
      100.11057
      101.97599
      108.78600
      104.64299
      120.54186
      107.82694
      107.09430
      121.03898
      108.62361
      113.28610
      130.08355
      111.88780
      120.98241
      131.16635
      123.25676
      166.82095
      166.03699
      161.88571
      166.62406
      136.79249
      128.79648
       99.75916
      143.81570
      125.70216
      106.33611
      159.97616
      148.53718
      113.17243
      131.31096
      120.75556
      123.95930
      117.43821
      122.68654
      116.45988
      118.61451
      116.68712
      113.92761
      107.69873
      100.85287
      103.76439
      103.86979
      101.76213
      102.28669
      104.00205
      100.21163
      100.32305
       99.56047
      102.76598
      102.54229
      100.69133
       98.66119
       99.19047
       97.69881
       98.50986
      100.00000
      100.00000
      100.00000
      100.00000
      100.00000
      100.00000
      100.00000
      100.00000
      100.00000
      100.00000
       99.85359
      104.57513
      108.01580
      114.07407
      109.13218
      112.13905
      108.91640
      112.86761
      119.16827
      109.89991
      122.69843
      122.69043
      115.16224
      139.87100
      138.29205
      130.57278
      202.95475
      159.85009
      129.56876
      143.98137
      142.19588
      125.52406
      118.61516
      158.47577
      127.48306
       95.15342
      144.31869
      111.71095
      124.99563
      111.46336
      110.32539
      138.01962
      100.77460
      115.86508
      127.14260
      110.50360
      110.87375
      111.99248
      102.50379
      102.37217
      107.58546
      102.95548
      101.43765
      105.40533
       98.99624
       98.66948
      103.56413
      100.44077
       98.69165
      103.39724
       96.26813
       95.48213
       97.38085
       98.02102
      100.00000
      100.00000
      100.00000
      100.00000
      100.00000
      100.00000
      100.00000
      100.00000
      100.00000
      100.00000
      100.58445
      102.08038
      107.34910
       97.58266
      103.80951
      106.80116
       91.09024
      101.05023
      116.83500
       91.46998
      106.73040
      123.25171
       94.95120
      103.52606
      148.93033
       98.24536
       79.58320
      132.59311
       98.56040
       68.94493
       89.51658
       86.89780
      142.94463
      126.50406
      110.95076
      149.21288
      129.31646
      104.59518
      127.54928
      101.88093
      128.97192
      112.33472
       94.44119
      124.65260
      118.50727
       96.07982
      111.33445
      106.47526
       93.51011
      103.03900
      102.87903
       96.58700
      102.04746
      102.81597
       97.83745
      101.53017
       99.01380
       97.04971
       97.26293
      101.82497
      103.15466
       97.75681
       97.60243
       97.91394
      100.00000
      100.00000
      100.00000
      100.00000
      100.00000
      100.00000
      100.00000
      100.00000
      100.00000
      100.00000
      100.78493
      103.26216
      104.81829
      100.71143
      117.69179
      104.04481
      101.52277
      116.13119
      104.11101
      107.96712
      127.35635
      103.46886
      118.48277
      127.18078
       87.79731
      153.49645
      120.88406
       97.83669
      166.42978
      115.67458
      103.58737
      115.97502
      130.71937
      127.21881
      120.69953
      144.55909
      136.03537
      120.01173
      128.44732
      121.50333
      134.14203
      122.08101
      123.19886
      121.69439
      117.45937
      107.86076
      116.05321
      107.20993
      103.47565
      109.93768
      103.57140
      103.30698
      109.11781
      102.23582
      101.52056
      104.50102
       98.53727
      102.80789
      104.50906
       96.18934
      103.31734
       98.34288
       96.72700
       98.06684
      100.00000
      100.00000
      100.00000