# vtk DataFile Version 3.0
 Rectilinear Grid
 ASCII
 DATASET RECTILINEAR_GRID
DIMENSIONS          65          65          37
X_COORDINATES          65  double
  -801000.00000  -417000.00000  -225000.00000  -129000.00000   -81000.00000   -57000.00000   -45000.00000   -39000.00000   -36000.00000   -34500.00000   -33000.00000   -31500.00000   -30000.00000   -28500.00000   -27000.00000   -25500.00000   -24000.00000   -22500.00000   -21000.00000   -19500.00000   -18000.00000   -16500.00000   -15000.00000   -13500.00000   -12000.00000   -10500.00000    -9000.00000    -7500.00000    -6000.00000    -4500.00000    -3000.00000    -1500.00000        0.00000     1500.00000     3000.00000     4500.00000     6000.00000     7500.00000     9000.00000    10500.00000    12000.00000    13500.00000    15000.00000    16500.00000    18000.00000    19500.00000    21000.00000    22500.00000    24000.00000    25500.00000    27000.00000    28500.00000    30000.00000    31500.00000    33000.00000    34500.00000    36000.00000    39000.00000    45000.00000    57000.00000    81000.00000   129000.00000   225000.00000   417000.00000   801000.00000
Y_COORDINATES          65  double
  -801000.00000  -417000.00000  -225000.00000  -129000.00000   -81000.00000   -57000.00000   -45000.00000   -39000.00000   -36000.00000   -34500.00000   -33000.00000   -31500.00000   -30000.00000   -28500.00000   -27000.00000   -25500.00000   -24000.00000   -22500.00000   -21000.00000   -19500.00000   -18000.00000   -16500.00000   -15000.00000   -13500.00000   -12000.00000   -10500.00000    -9000.00000    -7500.00000    -6000.00000    -4500.00000    -3000.00000    -1500.00000        0.00000     1500.00000     3000.00000     4500.00000     6000.00000     7500.00000     9000.00000    10500.00000    12000.00000    13500.00000    15000.00000    16500.00000    18000.00000    19500.00000    21000.00000    22500.00000    24000.00000    25500.00000    27000.00000    28500.00000    30000.00000    31500.00000    33000.00000    34500.00000    36000.00000    39000.00000    45000.00000    57000.00000    81000.00000   129000.00000   225000.00000   417000.00000   801000.00000
Z_COORDINATES          37  double
        0.00000      200.00000      420.00000      662.00000      928.00000     1221.00000     1543.00000     1897.00000     2287.00000     2716.00000     3188.00000     3707.00000     4278.00000     4906.00000     5596.00000     6355.00000     7190.00000     8109.00000     9120.00000    10232.00000    11455.00000    13045.00000    15112.00000    17799.00000    21292.00000    25833.00000    31736.00000    41736.00000    56736.00000    79236.00000   112986.00000   163611.00000   239548.00000   353454.00000   524313.00000   780602.00000  1088148.00000
CELL_DATA      147456
 SCALARS resistivity double 1
 LOOKUP_TABLE table1
      100.00000
      100.00000
      100.00000
      100.00000
      100.00000
      100.00000
      100.00000
      100.00000
      100.00000
      100.00000
      100.00000
      100.00000
      100.00000
      100.00000
      100.00000
      100.00000
      100.00000
      100.00000
      100.00000
      100.00000
      100.00000
      100.00000
      100.00000
      100.00000
      100.00000
      100.00000
      100.00000
      100.00000
      100.00000
      100.00000
      100.00000
      100.00000
      100.00000
      100.00000
      100.00000
      100.00000
      100.00000
      100.00000
      100.00000
      100.00000
      100.00000
      100.00000
      100.00000
      100.00000
      100.00000
      100.00000
      100.00000
      100.00000
      100.00000
      100.00000
      100.00000
      100.00000
      100.00000
      100.00000
      100.00000
      100.00000
      100.00000
      100.00000
      100.00000
      100.00000
      100.00000
      100.00000
      100.00000
      100.00000
      100.00000
      100.00000
      100.00000
      100.00000
      100.00000
      100.00000
      100.00000
      100.00000
      100.00000
      100.00000
      100.00000
      100.00000
      100.00000
      100.00000
      100.00000
      100.00000
      100.00000
      100.00000
      100.00000
      100.00000
      100.00000
      100.00000
      100.00000
      100.00000
      100.00000
      100.00000
      100.00000
      100.00000
      100.00000
      100.00000
      100.00000
      100.00000
      100.00000
      100.00000
      100.00000
      100.00000
      100.00000
      100.00000
      100.00000
      100.00000
      100.00000
      100.00000
      100.00000
      100.00000
      100.00000
      100.00000
      100.00000
      100.00000
      100.00000
      100.00000
      100.00000
      100.00000
      100.00000
      100.00000
      100.00000
      100.00000
      100.00000
      100.00000
      100.00000
      100.00000
      100.00000
      100.00000
      100.00000
      100.00000
      100.00000
      100.00000
      100.00000
      100.00000
      100.00000
      100.00000
      100.00000
      100.00000
      100.00000
      100.00000
      100.00000
      100.00000
      100.00000
      100.00000
      100.00000
      100.00000
      100.00000
      100.00000
      100.00000
      100.00000
      100.00000
      100.00000
      100.00000
      100.00000
      100.00000
      100.00000
      100.00000
      100.00000
      100.00000
      100.00000
      100.00000
      100.00000
      100.00000
      100.00000
      100.00000
      100.00000
      100.00000
      100.00000
      100.00000
      100.00000
      100.00000
      100.00000
      100.00000
      100.00000
      100.00000
      100.00000
      100.00000
      100.00000
      100.00000
      100.00000
      100.00000
      100.00000
      100.00000
      100.00000
      100.00000
      100.00000
      100.00000
      100.00000
      100.00000
      100.00000
      100.00000
      100.00000
      100.00000
      100.00000
      100.00000
      100.00000
      100.00000
      100.00000
      100.00000
      100.00000
      100.00000
      100.00000
      100.00000
      100.00000
      100.00000
      100.00000
      100.00000
      100.00000
      100.00000
      100.00000
      100.00000
      100.00000
      100.00000
      100.00000
      100.00000
      100.00000
      100.00000
      100.00000
      100.00000
      100.00000
      100.00000
      100.00000
      100.00000
      100.00000
      100.00000
      100.00000
      100.00000
      100.00000
      100.00000
      100.00000
      100.00000
      100.00000
      100.00000
      100.00000
      100.00000
      100.00000
      100.00000
      100.00000
      100.00000
      100.00000
      100.00000
      100.00000
      100.00000
      100.00000
      100.00000
      100.00000
      100.00000
      100.00000
      100.00000
      100.00000
      100.00000
      100.00000
      100.00000
      100.00000
      100.00000
      100.00000
      100.00000
      100.00000
      100.00000
      100.00000
      100.00000
      100.00000
      100.00000
      100.00000
      100.00000
      100.00000
      100.00000
      100.00000
      100.00000
      100.00000
      100.00000
      100.00000
      100.00000
      100.00000
      100.00000
      100.00000
      100.00000
      100.00000
      100.00000
      100.00000
      100.00000
      100.00000
      100.00000
      100.00000
      100.00000
      100.00000
      100.00000
      100.00000
      100.00000
      100.00000
      100.00000
      100.00000
      100.00000
      100.00000
      100.00000
      100.00000
      100.00000
      100.00000
      100.00000
      100.00000
      100.00000
      100.00000
      100.00000
      100.00000
      100.00000
      100.00000
      100.00000
      100.00000
      100.00000
      100.00000
      100.00000
      100.00000
      100.00000
      100.00000
      100.00000
      100.00000
      100.00000
      100.00000
      100.00000
      100.00000
      100.00000
      100.00000
      100.00000
      100.00000
      100.00000
      100.00000
      100.00000
       94.65466
       94.59248
       94.91820
       95.39508
       96.92276
       96.81966
       96.64054
       95.04117
       97.55414
       94.29604
       93.12989
       96.50190
       92.38129
       92.79587
       99.89042
       88.29874
       91.58485
      110.37052
       84.11325
      101.83100
       94.79734
      102.55924
       95.63879
       93.63569
       98.70130
       94.17517
       93.57043
       98.14776
       94.42808
       88.45329
       94.53481
       94.40477
       92.97957
       96.34705
       96.38565
       95.68925
       97.37335
       96.63349
       95.82937
       98.59606
       97.21614
       97.28609
       97.03049
       98.43852
       98.02159
       97.72327
       98.09384
       97.91149
       98.27386
       96.29198
       97.97899
       96.18396
       95.11665
       95.55236
      100.00000
      100.00000
      100.00000
      100.00000
      100.00000
      100.00000
      100.00000
      100.00000
      100.00000
      100.00000
       93.71371
       93.51061
       95.32529
       97.09862
       96.48525
       96.56512
       96.51305
       99.78822
       89.87620
       97.03141
      101.29464
       90.53568
      102.43517
      104.04264
       83.93616
      118.24808
      112.61023
       69.76346
      155.33287
      101.51974
      122.15982
       88.03439
      105.88511
      111.09109
       94.33929
      103.62775
      108.82808
       91.87291
       95.53202
      103.62632
       86.91483
       93.27415
      100.55324
       91.98346
       96.02623
      100.01820
       95.18877
       96.72469
       98.45352
       91.41758
       97.25990
       96.72994
       96.91757
       95.52778
       97.58100
       98.16519
       98.98508
       98.59660
       96.26028
       99.03651
       93.60482
       94.66098
       93.46387
       94.99523
      100.00000
      100.00000
      100.00000
      100.00000
      100.00000
      100.00000
      100.00000
      100.00000
      100.00000
      100.00000
       93.67116
       93.67836
       86.31171
       89.91722
      100.92145
       89.80699
       97.03217
       93.02770
      104.50240
       94.14081
       89.60647
      111.80810
       95.43138
      100.87025
      151.87774
       86.55971
      118.69822
      243.36517
       63.34738
      216.08771
      141.25907
      236.62858
      112.65423
      131.28042
      195.15389
       98.96294
      106.24726
      182.48648
       86.66864
       55.16453
       83.11864
       98.25588
       79.50652
       85.83864
       99.81174
       90.24222
       94.00834
       93.85460
       85.95372
      101.42608
       99.00831
       96.00513
       87.06497
      103.07788
       96.51041
       88.95660
       97.81272
       94.20720
       94.18095
       82.38804
       99.25582
       91.94943
       94.80776
       95.57493
      100.00000
      100.00000
      100.00000
      100.00000
      100.00000
      100.00000
      100.00000
      100.00000
      100.00000
      100.00000
       94.62430
       94.48641
       90.70605
       98.03756
       99.01804
       76.46591
       91.53873
      123.02332
       76.14403
       93.35304
      125.50415
       82.31778
       91.98979
      132.94066
       66.18453
       93.31287
      228.68476
       63.41776
      103.01467
      374.20787
      291.67858
      148.40765
       58.54986
      164.40989
       61.32747
       34.27465
      156.03253
       67.98674
       87.90503
      130.63661
       65.87646
      121.13208
       98.05894
       84.06874
      114.67394
      102.44188
       98.32731
      108.57843
      107.05491
       88.19451
      105.57733
       97.44120
       94.84266
      102.83033
      101.85398
       92.64847
      111.34670
       92.87547
       90.82350
       92.93661
       92.55230
       85.89736
       97.73271
       95.61360
      100.00000
      100.00000
      100.00000
      100.00000
      100.00000
      100.00000
      100.00000
      100.00000
      100.00000
      100.00000
       96.46455
       93.64120
      103.14841
       99.69293
       88.00010
      127.86333
       97.44383
       82.09626
      121.44449
      103.96577
       94.79413
      129.84773
      115.80800
       93.01148
      152.67547
      121.89284
       94.42875
      190.08538
      149.72207
      122.39207
      171.72958
      113.67284
      493.90696
       67.89407
       54.97066
      423.94606
       78.18676
      109.96214
      102.22643
       85.73263
      181.47075
       69.54260
       90.38288
      110.83454
       82.86999
       94.86771
      114.04351
       88.68952
      106.79834
      103.64870
       91.38707
       97.49201
      110.89166
       87.43107
       99.02164
      112.14564
       90.51058
       91.89062
      110.25774
       90.83866
       91.74145
       95.92371
       94.29691
       97.58578
      100.00000
      100.00000
      100.00000
      100.00000
      100.00000
      100.00000
      100.00000
      100.00000
      100.00000
      100.00000
       95.58568
       97.29189
       90.03421
      109.79847
       97.00192
       96.37010
      116.85261
       87.95386
      105.70226
       98.61559
       91.58914
      129.35017
       75.33785
       90.78311
      154.60494
       53.21110
       97.54131
      264.55763
       22.26473
      433.53656
      204.50053
      603.94369
       74.44557
      114.19333
      477.24684
       48.88671
      138.58627
      196.19463
       84.94918
       59.37225
       93.98924
      140.70575
       72.24397
      110.27317
      114.50789
       75.59463
      106.35318
      107.36032
       89.70295
      104.71335
      110.86887
      102.85770
      107.03892
      105.72023
      102.24626
       98.57430
      105.46454
      102.38919
       97.78985
      106.96849
       87.94519
       89.90960
       96.60151
       96.89435
      100.00000
      100.00000
      100.00000
      100.00000
      100.00000
      100.00000
      100.00000
      100.00000
      100.00000
      100.00000
       95.72070
       97.54124
       89.79014
       94.11806
      101.04098
       80.26364
       92.32774
      119.67902
       88.37610
       89.88550
      107.14067
       87.96042
       87.64133
      144.69883
       71.56111
      100.07297
      223.54136
       61.07558
      162.33067
      413.01634
      212.33162
      155.05634
       59.22317
      191.86439
       77.51446
       52.71394
      129.61574
       90.96830
      104.08236
       94.51755
       88.81094
      118.53244
       91.96549
       90.25633
      111.85137
       96.37541
       90.08588
      108.99854
       95.46936
       98.12259
      116.77935
      103.46376
      106.56747
       99.44124
      100.59928
      103.80185
      109.77402
      101.95926
      103.96843
      103.25931
      102.85758
       98.34742
       95.21871
       97.55641
      100.00000
      100.00000
      100.00000
      100.00000
      100.00000
      100.00000
      100.00000
      100.00000
      100.00000
      100.00000
       98.52470
       92.24529
      120.20978
       95.66150
      109.50605
      128.97565
       97.09459
      109.71953
      110.98413
      102.39413
      110.41600
      126.84601
      139.64835
      113.02829
      181.11797
      237.25147
      148.59631
      302.92472
      705.61549
      106.37390
      193.73582
       45.88693
      939.94466
       77.20612
       45.49458
      838.88494
      109.55313
       88.90413
      101.42039
      121.65714
      185.06205
       76.12900
      143.55056
      107.26908
       77.99533
      131.15790
      111.32890
       90.49330
      114.87557
      114.56959
       99.25807
      113.48571
      114.29629
      102.47332
      103.00381
      102.17071
      103.73374
      101.81996
      111.57057
       92.20709
      106.99064
       99.69561
       96.06583
       97.37275
      100.00000
      100.00000
      100.00000
      100.00000
      100.00000
      100.00000
      100.00000
      100.00000
      100.00000
      100.00000
       94.46967
      103.98451
       83.40950
      131.99014
      101.69634
      101.63434
      115.20153
      104.51192
      115.02244
      110.69073
      101.97209
      168.97155
       77.56874
      127.00604
      165.95938
      107.62426
      251.36848
      155.28538
      125.46684
      546.95869
      215.03429
     1756.77211
       64.86141
      212.55882
      282.75099
       45.31286
      166.65276
      158.51065
      100.00609
       69.01813
      105.11781
      167.78066
       68.52821
      107.66264
      123.25836
       86.25973
      104.23138
      114.55348
       86.34450
      109.60023
      105.94322
       86.99380
      104.20367
       99.53610
       91.71299
       93.60798
      105.82134
      102.00148
       99.13311
      114.78948
      101.07654
       94.66286
       96.95416
       97.33083
      100.00000
      100.00000
      100.00000
      100.00000
      100.00000
      100.00000
      100.00000
      100.00000
      100.00000
      100.00000
       96.99645
       97.50706
       97.45026
       91.75528
      105.23864
      100.74606
       93.04666
      105.68247
      101.02230
       90.96092
      110.51651
      127.46084
       86.11712
      100.58791
      134.75340
      115.26947
      174.31845
      137.46039
      138.03706
      224.29298
      191.76581
      131.39595
      129.35032
      139.67993
       79.96783
      117.30660
      119.93991
      103.61352
      112.79628
       95.07027
      100.49876
      105.55375
       87.64795
       99.39027
       99.07502
       96.82854
       99.95215
       99.68029
       94.79373
      106.07710
      101.14890
       98.49017
      102.30409
      100.05767
       97.30328
       98.96763
       99.34370
       95.96420
      103.75635
       99.90725
       99.03344
       98.83257
       97.11665
       97.51588
      100.00000
      100.00000
      100.00000
      100.00000
      100.00000
      100.00000
      100.00000
      100.00000
      100.00000
      100.00000
      100.65835
       91.75672
      132.57449
       82.13422
      120.06293
      113.30758
      103.00932
      119.35313
      109.55740
      110.24671
      132.28509
       93.00843
      150.50351
      118.16909
      103.42419
      211.33282
      147.52722
      109.66895
      283.49267
       98.51254
      318.94817
       15.69539
      728.50782
       72.73822
       34.99655
      537.53297
      126.79375
       81.43502
       95.44157
      138.65009
      160.10094
       70.63434
      152.38015
      115.80989
       85.93970
      116.53364
      101.71451
       92.83075
      114.72151
      101.92929
       98.53348
      108.21803
      100.12541
       96.30302
       94.68684
      104.59245
       95.76230
       99.17039
      109.59078
       95.22756
      106.77017
      104.77479
       96.76802
       97.90485
      100.00000
      100.00000
      100.00000
      100.00000
      100.00000
      100.00000
      100.00000
      100.00000
      100.00000
      100.00000
       95.67988
      107.26733
       91.79486
      126.89347
      105.98235
      116.46807
      111.41458
      112.80735
      126.63032
      121.14844
      128.66333
      163.44915
      103.11629
      171.51334
      167.03698
      156.37922
      344.58752
      126.28096
      173.42577
      179.86975
      138.19551
      678.53453
       92.86993
      237.07141
      181.99381
       53.98021
      210.13897
      132.02958
      110.47848
       84.23263
       92.86740
      190.63709
       73.20351
       98.66104
      129.93594
       83.78823
      102.96540
      115.91962
       96.97470
      108.08609
      118.06243
      106.04533
      104.15915
      114.89693
      109.19166
      101.09525
      110.00500
      106.85630
      100.70219
      106.40166
       97.04687
      100.32169
       96.16605
       98.01307
      100.00000
      100.00000
      100.00000
      100.00000
      100.00000
      100.00000
      100.00000
      100.00000
      100.00000
      100.00000
       98.64631
       98.89992
      110.63892
       89.33553
      100.30077
      108.88504
       93.77243
      110.59422
      136.14087
       96.91073
      100.97663
      163.00680
       91.35313
       77.92150
      169.82451
      142.86504
      205.34584
      175.79451
      141.84172
      118.49030
      107.59270
      136.76187
      223.93474
       92.56214
      103.95933
      295.34274
      117.05958
      110.91980
      106.43240
       85.67198
      114.10461
       88.10508
       85.01401
      117.06753
       88.68984
       91.70834
      105.38526
       97.05487
       90.76480
      107.26626
      106.46291
       96.07687
      112.48453
      106.27325
       99.48012
      103.78256
      101.27632
       99.69053
      101.69564
      101.58604
      101.34802
       96.52475
       97.44762
       97.34058
      100.00000
      100.00000
      100.00000
      100.00000
      100.00000
      100.00000
      100.00000
      100.00000
      100.00000
      100.00000
       99.83305
       98.04423
      119.77226
       92.65632
      121.40642
      109.70405
      105.65954
      125.45719
       98.25923
      110.34399
      148.02772
       84.15261
      130.47579
      130.53182
       66.01904
      206.43222
      212.87149
      281.99462
      154.87707
      144.44849
      145.95231
       27.77440
      302.75622
       73.38263
       35.40926
      431.79588
      134.48677
       73.17083
       95.90836
      151.10609
      143.94997
       82.49701
      143.66913
      104.80699
       93.66079
      126.10848
      100.84866
      102.15967
      110.30924
      107.04532
      105.50190
      105.29993
      115.10732
      102.70736
      105.75549
      113.22646
      101.31342
      104.75645
      105.52030
       99.28247
      105.44725
       99.28014
       97.09423
       97.72041
      100.00000
      100.00000
      100.00000
      100.00000
      100.00000
      100.00000
      100.00000
      100.00000
      100.00000
      100.00000
       96.71723
      107.35088
       96.22281
      120.88926
      119.96068
      111.70339
      113.05847
      114.10730
      121.92745
      115.50519
      127.98170
      141.99275
      108.19838
      166.23311
      116.56498
      151.17927
      445.33078
      171.53761
      171.21658
      191.01946
      123.70044
      230.29763
       92.98635
      145.84929
      135.24070
       75.21313
      189.52742
      129.85525
      128.26906
       99.43914
      103.13453
      162.40660
       92.61593
      105.70326
      144.71234
      103.04797
      102.74398
      116.34976
      100.76763
       97.75693
      108.97423
      102.21030
      109.79799
      104.02334
      105.54217
      106.29826
      113.00618
      102.48088
       98.43431
      103.68289
      106.39885
       89.30297
      100.35173
       96.78342
      100.00000
      100.00000
      100.00000
      100.00000
      100.00000
      100.00000
      100.00000
      100.00000
      100.00000
      100.00000
       99.77180
       96.29753
      125.21643
       94.53941
      109.31887
      119.67409
       90.10317
       98.26508
      152.24266
       92.72343
       89.29801
      182.47299
       99.29836
       74.94795
      254.54088
      114.58990
       89.82262
      255.07405
      184.55501
       62.98187
      116.46767
      127.55826
      182.35044
      114.09408
      115.05286
      236.35874
      113.91963
      113.57269
      114.75531
       92.72222
      130.69938
       98.57055
       93.54515
      111.14107
      102.11503
       99.25230
      120.38620
      100.59878
       91.39629
      103.09920
       94.90739
       98.64733
      109.58225
      104.46669
       97.75891
       98.38400
      101.51843
       95.80737
       95.26154
       97.73151
       94.69616
      105.55556
       96.27393
       98.56772
      100.00000
      100.00000
      100.00000
      100.00000
      100.00000
      100.00000
      100.00000
      100.00000
      100.00000
      100.00000
       99.51334
       98.54428
      114.47700
       95.44578
      127.93619
      103.05624
       96.03632
      131.75612
       86.09841
      103.80383
      150.08402
       67.44641
      127.31445
      138.68832
       58.92823
      224.06998
      124.57965
      109.63812
      151.76616
       96.31041
       99.89988
       61.23607
      151.89039
       96.93451
       67.62557
      217.87620
      135.52367
       74.66383
      107.97746
      182.96555
      121.85850
      108.34121
      142.82027
      107.40381
      114.20274
      126.00525
      117.21816
      104.68626
       96.79549
      105.46166
      104.60613
      102.49856
       95.90543
      102.78839
       99.73976
      103.94861
       94.01220
      108.15246
      106.09227
      104.20712
       94.69969
      102.03291
       97.72552
       98.20917
      100.00000
      100.00000
      100.00000
      100.00000
      100.00000
      100.00000
      100.00000
      100.00000
      100.00000
      100.00000
       98.31323
      103.20095
      107.85535
      117.35297
      103.06500
      103.62111
      108.06525
      117.59201
      112.60753
      108.66817
      141.72858
      119.92436
      105.28751
      178.18580
       92.51386
      101.65234
      437.67133
       91.71683
      102.57114
      159.81441
       98.33551
      113.64935
       99.77468
      127.13333
      120.80752
       81.73156
      168.69017
      120.27286
      139.58295
      116.45155
       87.80819
      166.14273
       93.45575
      103.35390
      137.42814
      116.41544
      105.01755
      115.48371
      106.63612
       98.42715
      114.42045
      108.26234
       93.72923
      109.41288
       98.84441
       93.06968
      110.11506
       94.58923
       92.64782
      106.10546
       91.60133
       94.15951
       97.38295
       97.78640
      100.00000
      100.00000
      100.00000
      100.00000
      100.00000
      100.00000
      100.00000
      100.00000
      100.00000
      100.00000
       99.70563
      100.54498
      114.22781
       94.17878
      102.31645
      128.49185
       92.31544
       89.98080
      162.54385
       90.54747
       85.52077
      185.05389
       94.05528
       66.20411
      285.05591
       95.49707
       37.58615
      143.60784
      106.14565
       40.12184
       84.24520
      103.28764
      144.74617
      131.71975
      131.14074
      155.58867
      118.78803
      124.92191
      115.41723
       96.04853
      145.78050
       95.58030
       88.59147
      124.66146
      118.59750
       94.70710
      116.61419
      105.90490
       90.56649
      103.49955
      102.18168
       92.37806
      100.19270
      103.17302
       95.63165
       99.76800
      100.61422
       94.78663
       90.10874
      102.68485
      101.94126
       97.08150
       97.96541
       97.46959
      100.00000
      100.00000
      100.00000
      100.00000
      100.00000
      100.00000
      100.00000
      100.00000
      100.00000
      100.00000
       99.54782
      103.76433
      105.28869
       88.67486
      126.86148
       96.12241
       90.78845
      129.92814
       85.23150
      103.97007
      154.29327
       69.85357
      129.84941
      146.81341
       53.74933
      236.88370
      119.37315
       60.80882
      233.98756
      105.44919
       99.17987
       95.02426
      119.91950
      127.97872
       97.91148
      143.61453
      131.98558
       79.30944
      121.48297
      179.52878
      106.63858
      117.44593
      134.01755
      119.05304
      117.38147
      105.10589
      127.52644
      105.33452
      102.75072
      116.93789
       99.30497
      100.96426
      121.05695
       96.67739
      100.99519
      111.73843
       89.36682
      105.18805
      110.95846
       89.49374
      106.59483
      100.90311
       96.14207
       97.93977
      100.00000
      100.00000
      100.00000